;[ defaults ]
;nbfunc comb-rule gen-pairs fudgeLJ fudgeQQ
;1   2   yes   0.5   0.8333   
;
;[ atomtypes ]
;o_2w   15.999   0.0   A   0.315061   0.6363864   
;h_1w   1.008   0.0   A    0.000001   0.0000001   

[ moleculetype ]
; molname	nrexcl
water		2

[ atoms ]
; id	at type	res nr 	residu name	at name		cg nr	charge
1     o_2w  1       SOL             O             1       -0.834
2     h_1w  1       SOL             H             1        0.417
3     h_1w  1       SOL             H             1        0.417

#ifndef FLEXIBLE
[ settles ]
; i	j	funct	length
1	1	0.09572	0.15139

[ exclusions ]
1	2	3
2	1	3
3	1	2
#else
[ bonds ]
; i	j	funct	length	force.c.
1	2	1	0.09572	502416.0
1	3	1	0.09572	502416.0
	

[ angles ]
; i	j	k	funct	angle	force.c.
2	1	3	1	104.52	628.02
#endif
